<?xml version="1.0" encoding="UTF-8"?>

<!-- generated on 2023-12-11 14:25:23 by Eclipse SUMO sumo Version 1.18.0
<configuration xmlns:xsi="http://www.w3.org/2001/XMLSchema-instance" xsi:noNamespaceSchemaLocation="http://sumo.dlr.de/xsd/sumoConfiguration.xsd">

    <input>
        <net-file value="maps/map1.net.xml"/>
        <route-files value="maps/map1.rou.xml"/>
    </input>

    <output>
        <tripinfo-output value="tripinfo.xml"/>
    </output>

    <time>
        <begin value="0"/>
        <end value="2000"/>
    </time>

    <report>
        <verbose value="true"/>
        <no-step-log value="true"/>
    </report>

    <traci_server>
        <remote-port value="52222"/>
    </traci_server>

</configuration>
-->

<tripinfos xmlns:xsi="http://www.w3.org/2001/XMLSchema-instance" xsi:noNamespaceSchemaLocation="http://sumo.dlr.de/xsd/tripinfo_file.xsd">
    <tripinfo id="1" depart="1.00" departLane="-E1_0" departPos="5.10" departSpeed="0.00" departDelay="0.00" arrival="22.00" arrivalLane="E0_0" arrivalPos="89.60" arrivalSpeed="12.03" duration="21.00" routeLength="183.13" waitingTime="0.00" waitingCount="0" stopTime="0.00" timeLoss="5.33" rerouteNo="0" devices="tripinfo_1" vType="DEFAULT_VEHTYPE" speedFactor="0.94" vaporized=""/>
    <tripinfo id="4" depart="4.00" departLane="-E1_0" departPos="5.10" departSpeed="0.00" departDelay="0.00" arrival="24.00" arrivalLane="E0_0" arrivalPos="89.60" arrivalSpeed="14.69" duration="20.00" routeLength="183.13" waitingTime="0.00" waitingCount="0" stopTime="0.00" timeLoss="6.72" rerouteNo="0" devices="tripinfo_4" vType="DEFAULT_VEHTYPE" speedFactor="1.08" vaporized=""/>
    <tripinfo id="11" depart="11.00" departLane="-E1_0" departPos="5.10" departSpeed="0.00" departDelay="0.00" arrival="32.00" arrivalLane="E0_0" arrivalPos="89.60" arrivalSpeed="12.03" duration="21.00" routeLength="183.13" waitingTime="0.00" waitingCount="0" stopTime="0.00" timeLoss="5.60" rerouteNo="0" devices="tripinfo_11" vType="DEFAULT_VEHTYPE" speedFactor="0.94" vaporized=""/>
    <tripinfo id="3" depart="3.00" departLane="-E3_0" departPos="5.10" departSpeed="0.00" departDelay="0.00" arrival="34.00" arrivalLane="E0_1" arrivalPos="89.60" arrivalSpeed="13.74" duration="31.00" routeLength="193.45" waitingTime="6.00" waitingCount="1" stopTime="0.00" timeLoss="15.98" rerouteNo="0" devices="tripinfo_3" vType="DEFAULT_VEHTYPE" speedFactor="1.01" vaporized=""/>
    <tripinfo id="10" depart="11.00" departLane="-E3_0" departPos="5.10" departSpeed="0.00" departDelay="1.00" arrival="34.00" arrivalLane="E2_0" arrivalPos="89.60" arrivalSpeed="11.55" duration="23.00" routeLength="183.13" waitingTime="0.00" waitingCount="0" stopTime="0.00" timeLoss="6.59" rerouteNo="0" devices="tripinfo_10" vType="DEFAULT_VEHTYPE" speedFactor="0.89" vaporized=""/>
    <tripinfo id="9" depart="9.00" departLane="-E3_0" departPos="5.10" departSpeed="0.00" departDelay="0.00" arrival="36.00" arrivalLane="E0_1" arrivalPos="89.60" arrivalSpeed="14.24" duration="27.00" routeLength="193.45" waitingTime="3.00" waitingCount="1" stopTime="0.00" timeLoss="12.41" rerouteNo="0" devices="tripinfo_9" vType="DEFAULT_VEHTYPE" speedFactor="1.05" vaporized=""/>
    <tripinfo id="12" depart="14.00" departLane="-E3_0" departPos="5.10" departSpeed="0.00" departDelay="2.00" arrival="36.00" arrivalLane="E1_0" arrivalPos="89.60" arrivalSpeed="10.92" duration="22.00" routeLength="194.90" waitingTime="0.00" waitingCount="0" stopTime="0.00" timeLoss="5.31" rerouteNo="0" devices="tripinfo_12" vType="DEFAULT_VEHTYPE" speedFactor="0.86" vaporized=""/>
    <tripinfo id="14" depart="17.00" departLane="-E3_0" departPos="5.10" departSpeed="0.00" departDelay="3.00" arrival="37.00" arrivalLane="E2_0" arrivalPos="89.60" arrivalSpeed="14.73" duration="20.00" routeLength="183.13" waitingTime="0.00" waitingCount="0" stopTime="0.00" timeLoss="6.65" rerouteNo="0" devices="tripinfo_14" vType="DEFAULT_VEHTYPE" speedFactor="1.09" vaporized=""/>
    <tripinfo id="15" depart="20.00" departLane="-E3_0" departPos="5.10" departSpeed="0.00" departDelay="5.00" arrival="40.00" arrivalLane="E2_0" arrivalPos="89.60" arrivalSpeed="13.00" duration="20.00" routeLength="183.13" waitingTime="0.00" waitingCount="0" stopTime="0.00" timeLoss="6.02" rerouteNo="0" devices="tripinfo_15" vType="DEFAULT_VEHTYPE" speedFactor="1.03" vaporized=""/>
    <tripinfo id="5" depart="5.00" departLane="-E0_0" departPos="5.10" departSpeed="0.00" departDelay="0.00" arrival="44.00" arrivalLane="E2_0" arrivalPos="89.60" arrivalSpeed="13.13" duration="39.00" routeLength="194.90" waitingTime="16.00" waitingCount="1" stopTime="0.00" timeLoss="25.29" rerouteNo="0" devices="tripinfo_5" vType="DEFAULT_VEHTYPE" speedFactor="1.03" vaporized=""/>
    <tripinfo id="8" depart="8.00" departLane="-E0_0" departPos="5.10" departSpeed="0.00" departDelay="0.00" arrival="46.00" arrivalLane="E2_1" arrivalPos="89.60" arrivalSpeed="11.17" duration="38.00" routeLength="194.90" waitingTime="12.00" waitingCount="1" stopTime="0.00" timeLoss="20.77" rerouteNo="0" devices="tripinfo_8" vType="DEFAULT_VEHTYPE" speedFactor="0.83" vaporized=""/>
    <tripinfo id="21" depart="21.00" departLane="-E0_0" departPos="5.10" departSpeed="0.00" departDelay="0.00" arrival="47.00" arrivalLane="E1_1" arrivalPos="89.60" arrivalSpeed="12.49" duration="26.00" routeLength="193.45" waitingTime="2.00" waitingCount="1" stopTime="0.00" timeLoss="10.37" rerouteNo="0" devices="tripinfo_21" vType="DEFAULT_VEHTYPE" speedFactor="0.94" vaporized=""/>
    <tripinfo id="28" depart="28.00" departLane="-E0_0" departPos="5.10" departSpeed="0.00" departDelay="0.00" arrival="47.00" arrivalLane="E2_0" arrivalPos="89.60" arrivalSpeed="13.50" duration="19.00" routeLength="194.90" waitingTime="0.00" waitingCount="0" stopTime="0.00" timeLoss="3.68" rerouteNo="0" devices="tripinfo_28" vType="DEFAULT_VEHTYPE" speedFactor="0.97" vaporized=""/>
    <tripinfo id="23" depart="23.00" departLane="-E0_0" departPos="5.10" departSpeed="0.00" departDelay="0.00" arrival="50.00" arrivalLane="E1_1" arrivalPos="89.60" arrivalSpeed="12.22" duration="27.00" routeLength="193.45" waitingTime="1.00" waitingCount="1" stopTime="0.00" timeLoss="10.93" rerouteNo="0" devices="tripinfo_23" vType="DEFAULT_VEHTYPE" speedFactor="0.94" vaporized=""/>
    <tripinfo id="29" depart="31.00" departLane="-E0_0" departPos="5.10" departSpeed="0.00" departDelay="2.00" arrival="53.00" arrivalLane="E1_1" arrivalPos="89.60" arrivalSpeed="11.51" duration="22.00" routeLength="193.45" waitingTime="0.00" waitingCount="0" stopTime="0.00" timeLoss="4.85" rerouteNo="0" devices="tripinfo_29" vType="DEFAULT_VEHTYPE" speedFactor="0.89" vaporized=""/>
    <tripinfo id="16" depart="16.00" departLane="-E2_0" departPos="5.10" departSpeed="0.00" departDelay="0.00" arrival="55.00" arrivalLane="E3_1" arrivalPos="89.60" arrivalSpeed="14.24" duration="39.00" routeLength="193.45" waitingTime="14.00" waitingCount="2" stopTime="0.00" timeLoss="25.20" rerouteNo="0" devices="tripinfo_16" vType="DEFAULT_VEHTYPE" speedFactor="1.05" vaporized=""/>
    <tripinfo id="0" depart="0.00" departLane="-E2_0" departPos="5.10" departSpeed="0.00" departDelay="0.00" arrival="56.00" arrivalLane="E0_0" arrivalPos="89.60" arrivalSpeed="13.71" duration="56.00" routeLength="194.90" waitingTime="33.00" waitingCount="1" stopTime="0.00" timeLoss="42.10" rerouteNo="0" devices="tripinfo_0" vType="DEFAULT_VEHTYPE" speedFactor="1.06" vaporized=""/>
    <tripinfo id="20" depart="20.00" departLane="-E2_0" departPos="5.10" departSpeed="0.00" departDelay="0.00" arrival="59.00" arrivalLane="E0_0" arrivalPos="89.60" arrivalSpeed="11.17" duration="39.00" routeLength="194.90" waitingTime="13.00" waitingCount="1" stopTime="0.00" timeLoss="22.62" rerouteNo="0" devices="tripinfo_20" vType="DEFAULT_VEHTYPE" speedFactor="0.88" vaporized=""/>
    <tripinfo id="24" depart="24.00" departLane="-E2_0" departPos="5.10" departSpeed="0.00" departDelay="0.00" arrival="59.00" arrivalLane="E1_0" arrivalPos="89.60" arrivalSpeed="15.18" duration="35.00" routeLength="183.13" waitingTime="10.00" waitingCount="1" stopTime="0.00" timeLoss="22.52" rerouteNo="0" devices="tripinfo_24" vType="DEFAULT_VEHTYPE" speedFactor="1.16" vaporized=""/>
    <tripinfo id="41" depart="43.00" departLane="-E2_0" departPos="5.10" departSpeed="0.00" departDelay="2.00" arrival="61.00" arrivalLane="E3_1" arrivalPos="89.60" arrivalSpeed="15.90" duration="18.00" routeLength="193.45" waitingTime="0.00" waitingCount="0" stopTime="0.00" timeLoss="4.79" rerouteNo="0" devices="tripinfo_41" vType="DEFAULT_VEHTYPE" speedFactor="1.15" vaporized=""/>
    <tripinfo id="37" depart="37.00" departLane="-E2_0" departPos="5.10" departSpeed="0.00" departDelay="0.00" arrival="63.00" arrivalLane="E1_0" arrivalPos="89.60" arrivalSpeed="13.12" duration="26.00" routeLength="183.13" waitingTime="0.00" waitingCount="0" stopTime="0.00" timeLoss="10.84" rerouteNo="0" devices="tripinfo_37" vType="DEFAULT_VEHTYPE" speedFactor="0.95" vaporized=""/>
    <tripinfo id="18" depart="23.00" departLane="-E3_0" departPos="5.10" departSpeed="0.00" departDelay="5.00" arrival="66.00" arrivalLane="E2_0" arrivalPos="89.60" arrivalSpeed="12.73" duration="43.00" routeLength="183.13" waitingTime="22.00" waitingCount="1" stopTime="0.00" timeLoss="28.68" rerouteNo="0" devices="tripinfo_18" vType="DEFAULT_VEHTYPE" speedFactor="0.99" vaporized=""/>
    <tripinfo id="36" depart="36.00" departLane="-E3_0" departPos="5.10" departSpeed="0.00" departDelay="0.00" arrival="67.00" arrivalLane="E1_1" arrivalPos="89.60" arrivalSpeed="12.02" duration="31.00" routeLength="194.90" waitingTime="5.00" waitingCount="1" stopTime="0.00" timeLoss="15.56" rerouteNo="0" devices="tripinfo_36" vType="DEFAULT_VEHTYPE" speedFactor="0.92" vaporized=""/>
    <tripinfo id="19" depart="26.00" departLane="-E3_0" departPos="5.10" departSpeed="0.00" departDelay="7.00" arrival="69.00" arrivalLane="E2_0" arrivalPos="89.60" arrivalSpeed="12.87" duration="43.00" routeLength="183.13" waitingTime="19.00" waitingCount="1" stopTime="0.00" timeLoss="27.47" rerouteNo="0" devices="tripinfo_19" vType="DEFAULT_VEHTYPE" speedFactor="0.93" vaporized=""/>
    <tripinfo id="38" depart="39.00" departLane="-E3_0" departPos="5.10" departSpeed="0.00" departDelay="1.00" arrival="69.00" arrivalLane="E1_1" arrivalPos="89.60" arrivalSpeed="14.98" duration="30.00" routeLength="194.90" waitingTime="4.00" waitingCount="1" stopTime="0.00" timeLoss="16.97" rerouteNo="0" devices="tripinfo_38" vType="DEFAULT_VEHTYPE" speedFactor="1.13" vaporized=""/>
    <tripinfo id="46" depart="46.00" departLane="-E3_0" departPos="5.10" departSpeed="0.00" departDelay="0.00" arrival="71.00" arrivalLane="E1_1" arrivalPos="89.60" arrivalSpeed="13.36" duration="25.00" routeLength="194.90" waitingTime="0.00" waitingCount="0" stopTime="0.00" timeLoss="10.39" rerouteNo="0" devices="tripinfo_46" vType="DEFAULT_VEHTYPE" speedFactor="1.02" vaporized=""/>
    <tripinfo id="30" depart="30.00" departLane="-E3_0" departPos="5.10" departSpeed="0.00" departDelay="0.00" arrival="73.00" arrivalLane="E2_0" arrivalPos="89.60" arrivalSpeed="10.48" duration="43.00" routeLength="183.13" waitingTime="15.00" waitingCount="1" stopTime="0.00" timeLoss="25.45" rerouteNo="0" devices="tripinfo_30" vType="DEFAULT_VEHTYPE" speedFactor="0.83" vaporized=""/>
    <tripinfo id="55" depart="55.00" departLane="-E3_0" departPos="5.10" departSpeed="0.00" departDelay="0.00" arrival="74.00" arrivalLane="E1_1" arrivalPos="89.60" arrivalSpeed="14.49" duration="19.00" routeLength="194.90" waitingTime="0.00" waitingCount="0" stopTime="0.00" timeLoss="5.34" rerouteNo="0" devices="tripinfo_55" vType="DEFAULT_VEHTYPE" speedFactor="1.09" vaporized=""/>
    <tripinfo id="43" depart="43.00" departLane="-E3_0" departPos="5.10" departSpeed="0.00" departDelay="0.00" arrival="75.00" arrivalLane="E2_0" arrivalPos="89.60" arrivalSpeed="14.23" duration="32.00" routeLength="183.13" waitingTime="5.00" waitingCount="1" stopTime="0.00" timeLoss="19.48" rerouteNo="0" devices="tripinfo_43" vType="DEFAULT_VEHTYPE" speedFactor="1.17" vaporized=""/>
    <tripinfo id="17" depart="17.00" departLane="-E1_0" departPos="5.10" departSpeed="0.00" departDelay="0.00" arrival="77.00" arrivalLane="E2_1" arrivalPos="89.60" arrivalSpeed="14.47" duration="60.00" routeLength="193.45" waitingTime="38.00" waitingCount="1" stopTime="0.00" timeLoss="46.78" rerouteNo="0" devices="tripinfo_17" vType="DEFAULT_VEHTYPE" speedFactor="1.12" vaporized=""/>
    <tripinfo id="25" depart="25.00" departLane="-E1_0" departPos="5.10" departSpeed="0.00" departDelay="0.00" arrival="77.00" arrivalLane="E0_0" arrivalPos="89.60" arrivalSpeed="12.98" duration="52.00" routeLength="183.13" waitingTime="29.00" waitingCount="1" stopTime="0.00" timeLoss="38.24" rerouteNo="0" devices="tripinfo_25" vType="DEFAULT_VEHTYPE" speedFactor="1.02" vaporized=""/>
    <tripinfo id="26" depart="28.00" departLane="-E1_0" departPos="5.10" departSpeed="0.00" departDelay="2.00" arrival="80.00" arrivalLane="E3_0" arrivalPos="89.60" arrivalSpeed="13.63" duration="52.00" routeLength="194.90" waitingTime="27.00" waitingCount="1" stopTime="0.00" timeLoss="37.37" rerouteNo="0" devices="tripinfo_26" vType="DEFAULT_VEHTYPE" speedFactor="1.01" vaporized=""/>
    <tripinfo id="52" depart="52.00" departLane="-E1_0" departPos="5.10" departSpeed="0.00" departDelay="0.00" arrival="81.00" arrivalLane="E2_1" arrivalPos="89.60" arrivalSpeed="11.62" duration="29.00" routeLength="193.45" waitingTime="4.00" waitingCount="1" stopTime="0.00" timeLoss="11.87" rerouteNo="0" devices="tripinfo_52" vType="DEFAULT_VEHTYPE" speedFactor="0.90" vaporized=""/>
    <tripinfo id="54" depart="54.00" departLane="-E1_0" departPos="5.10" departSpeed="0.00" departDelay="0.00" arrival="82.00" arrivalLane="E3_1" arrivalPos="89.60" arrivalSpeed="12.02" duration="28.00" routeLength="194.90" waitingTime="1.00" waitingCount="1" stopTime="0.00" timeLoss="12.77" rerouteNo="0" devices="tripinfo_54" vType="DEFAULT_VEHTYPE" speedFactor="0.96" vaporized=""/>
    <tripinfo id="39" depart="39.00" departLane="-E1_0" departPos="5.10" departSpeed="0.00" departDelay="0.00" arrival="83.00" arrivalLane="E0_0" arrivalPos="89.60" arrivalSpeed="12.64" duration="44.00" routeLength="183.13" waitingTime="19.00" waitingCount="1" stopTime="0.00" timeLoss="28.58" rerouteNo="0" devices="tripinfo_39" vType="DEFAULT_VEHTYPE" speedFactor="0.93" vaporized=""/>
    <tripinfo id="58" depart="58.00" departLane="-E1_0" departPos="5.10" departSpeed="0.00" departDelay="0.00" arrival="84.00" arrivalLane="E2_1" arrivalPos="89.60" arrivalSpeed="14.00" duration="26.00" routeLength="193.45" waitingTime="0.00" waitingCount="0" stopTime="0.00" timeLoss="11.36" rerouteNo="0" devices="tripinfo_58" vType="DEFAULT_VEHTYPE" speedFactor="1.04" vaporized=""/>
    <tripinfo id="42" depart="42.00" departLane="-E1_0" departPos="5.10" departSpeed="0.00" departDelay="0.00" arrival="85.00" arrivalLane="E0_0" arrivalPos="89.60" arrivalSpeed="13.47" duration="43.00" routeLength="183.13" waitingTime="16.00" waitingCount="1" stopTime="0.00" timeLoss="28.05" rerouteNo="0" devices="tripinfo_42" vType="DEFAULT_VEHTYPE" speedFactor="1.01" vaporized=""/>
    <tripinfo id="35" depart="35.00" departLane="-E0_0" departPos="5.10" departSpeed="0.00" departDelay="0.00" arrival="89.00" arrivalLane="E3_0" arrivalPos="89.60" arrivalSpeed="11.94" duration="54.00" routeLength="183.13" waitingTime="31.00" waitingCount="1" stopTime="0.00" timeLoss="37.79" rerouteNo="0" devices="tripinfo_35" vType="DEFAULT_VEHTYPE" speedFactor="0.87" vaporized=""/>
    <tripinfo id="45" depart="45.00" departLane="-E0_0" departPos="5.10" departSpeed="0.00" departDelay="0.00" arrival="89.00" arrivalLane="E2_1" arrivalPos="89.60" arrivalSpeed="13.07" duration="44.00" routeLength="194.90" waitingTime="20.00" waitingCount="1" stopTime="0.00" timeLoss="29.54" rerouteNo="0" devices="tripinfo_45" vType="DEFAULT_VEHTYPE" speedFactor="0.99" vaporized=""/>
    <tripinfo id="47" depart="48.00" departLane="-E0_0" departPos="5.10" departSpeed="0.00" departDelay="1.00" arrival="91.00" arrivalLane="E1_1" arrivalPos="89.60" arrivalSpeed="12.68" duration="43.00" routeLength="193.45" waitingTime="18.00" waitingCount="1" stopTime="0.00" timeLoss="27.51" rerouteNo="0" devices="tripinfo_47" vType="DEFAULT_VEHTYPE" speedFactor="0.97" vaporized=""/>
    <tripinfo id="50" depart="50.00" departLane="-E0_0" departPos="5.10" departSpeed="0.00" departDelay="0.00" arrival="91.00" arrivalLane="E2_0" arrivalPos="89.60" arrivalSpeed="14.92" duration="41.00" routeLength="194.90" waitingTime="18.00" waitingCount="1" stopTime="0.00" timeLoss="27.40" rerouteNo="0" devices="tripinfo_50" vType="DEFAULT_VEHTYPE" speedFactor="1.10" vaporized=""/>
    <tripinfo id="53" depart="53.00" departLane="-E0_0" departPos="5.10" departSpeed="0.00" departDelay="0.00" arrival="93.00" arrivalLane="E1_1" arrivalPos="89.60" arrivalSpeed="13.74" duration="40.00" routeLength="193.45" waitingTime="15.00" waitingCount="1" stopTime="0.00" timeLoss="25.45" rerouteNo="0" devices="tripinfo_53" vType="DEFAULT_VEHTYPE" speedFactor="1.03" vaporized=""/>
    <tripinfo id="63" depart="63.00" departLane="-E0_0" departPos="5.10" departSpeed="0.00" departDelay="0.00" arrival="95.00" arrivalLane="E3_0" arrivalPos="89.60" arrivalSpeed="10.83" duration="32.00" routeLength="183.13" waitingTime="6.00" waitingCount="1" stopTime="0.00" timeLoss="15.12" rerouteNo="0" devices="tripinfo_63" vType="DEFAULT_VEHTYPE" speedFactor="0.85" vaporized=""/>
    <tripinfo id="62" depart="62.00" departLane="-E0_0" departPos="5.10" departSpeed="0.00" departDelay="0.00" arrival="97.00" arrivalLane="E1_1" arrivalPos="89.60" arrivalSpeed="11.62" duration="35.00" routeLength="193.45" waitingTime="7.00" waitingCount="1" stopTime="0.00" timeLoss="17.55" rerouteNo="0" devices="tripinfo_62" vType="DEFAULT_VEHTYPE" speedFactor="0.88" vaporized=""/>
    <tripinfo id="68" depart="68.00" departLane="-E0_0" departPos="5.10" departSpeed="0.00" departDelay="0.00" arrival="97.00" arrivalLane="E3_0" arrivalPos="89.60" arrivalSpeed="13.25" duration="29.00" routeLength="183.13" waitingTime="2.00" waitingCount="1" stopTime="0.00" timeLoss="14.91" rerouteNo="0" devices="tripinfo_68" vType="DEFAULT_VEHTYPE" speedFactor="1.02" vaporized=""/>
    <tripinfo id="67" depart="67.00" departLane="-E0_0" departPos="5.10" departSpeed="0.00" departDelay="0.00" arrival="98.00" arrivalLane="E1_1" arrivalPos="89.60" arrivalSpeed="14.29" duration="31.00" routeLength="193.45" waitingTime="5.00" waitingCount="1" stopTime="0.00" timeLoss="18.43" rerouteNo="0" devices="tripinfo_67" vType="DEFAULT_VEHTYPE" speedFactor="1.17" vaporized=""/>
    <tripinfo id="65" depart="65.00" departLane="-E1_0" departPos="5.10" departSpeed="0.00" departDelay="0.00" arrival="100.00" arrivalLane="E0_0" arrivalPos="89.60" arrivalSpeed="11.72" duration="35.00" routeLength="183.13" waitingTime="11.00" waitingCount="1" stopTime="0.00" timeLoss="18.48" rerouteNo="0" devices="tripinfo_65" vType="DEFAULT_VEHTYPE" speedFactor="0.85" vaporized=""/>
    <tripinfo id="71" depart="72.00" departLane="-E1_0" departPos="5.10" departSpeed="0.00" departDelay="1.00" arrival="101.00" arrivalLane="E3_0" arrivalPos="89.60" arrivalSpeed="13.53" duration="29.00" routeLength="194.90" waitingTime="6.00" waitingCount="1" stopTime="0.00" timeLoss="14.87" rerouteNo="0" devices="tripinfo_71" vType="DEFAULT_VEHTYPE" speedFactor="1.00" vaporized=""/>
    <tripinfo id="70" depart="70.00" departLane="-E1_0" departPos="5.10" departSpeed="0.00" departDelay="0.00" arrival="103.00" arrivalLane="E2_1" arrivalPos="89.60" arrivalSpeed="12.98" duration="33.00" routeLength="193.45" waitingTime="7.00" waitingCount="2" stopTime="0.00" timeLoss="18.37" rerouteNo="0" devices="tripinfo_70" vType="DEFAULT_VEHTYPE" speedFactor="1.00" vaporized=""/>
    <tripinfo id="72" depart="75.00" departLane="-E1_0" departPos="5.10" departSpeed="0.00" departDelay="3.00" arrival="105.00" arrivalLane="E0_0" arrivalPos="89.60" arrivalSpeed="12.05" duration="30.00" routeLength="183.13" waitingTime="4.00" waitingCount="1" stopTime="0.00" timeLoss="14.16" rerouteNo="0" devices="tripinfo_72" vType="DEFAULT_VEHTYPE" speedFactor="0.90" vaporized=""/>
    <tripinfo id="76" depart="78.00" departLane="-E1_0" departPos="5.10" departSpeed="0.00" departDelay="2.00" arrival="105.00" arrivalLane="E2_1" arrivalPos="89.60" arrivalSpeed="13.06" duration="27.00" routeLength="193.45" waitingTime="2.00" waitingCount="2" stopTime="0.00" timeLoss="12.08" rerouteNo="0" devices="tripinfo_76" vType="DEFAULT_VEHTYPE" speedFactor="0.97" vaporized=""/>
    <tripinfo id="78" depart="79.00" departLane="-E1_0" departPos="5.10" departSpeed="0.00" departDelay="1.00" arrival="107.00" arrivalLane="E2_1" arrivalPos="89.60" arrivalSpeed="14.58" duration="28.00" routeLength="193.45" waitingTime="0.00" waitingCount="0" stopTime="0.00" timeLoss="14.35" rerouteNo="0" devices="tripinfo_78" vType="DEFAULT_VEHTYPE" speedFactor="1.08" vaporized=""/>
    <tripinfo id="86" depart="86.00" departLane="-E1_0" departPos="5.10" departSpeed="0.00" departDelay="0.00" arrival="107.00" arrivalLane="E3_0" arrivalPos="89.60" arrivalSpeed="11.49" duration="21.00" routeLength="194.90" waitingTime="0.00" waitingCount="0" stopTime="0.00" timeLoss="5.28" rerouteNo="0" devices="tripinfo_86" vType="DEFAULT_VEHTYPE" speedFactor="0.91" vaporized=""/>
    <tripinfo id="48" depart="49.00" departLane="-E3_0" departPos="5.10" departSpeed="0.00" departDelay="1.00" arrival="109.00" arrivalLane="E2_0" arrivalPos="89.60" arrivalSpeed="15.34" duration="60.00" routeLength="183.13" waitingTime="32.00" waitingCount="1" stopTime="0.00" timeLoss="48.06" rerouteNo="0" devices="tripinfo_48" vType="DEFAULT_VEHTYPE" speedFactor="1.18" vaporized=""/>
    <tripinfo id="69" depart="69.00" departLane="-E3_0" departPos="5.10" departSpeed="0.00" departDelay="0.00" arrival="111.00" arrivalLane="E0_1" arrivalPos="89.60" arrivalSpeed="14.73" duration="42.00" routeLength="193.45" waitingTime="18.00" waitingCount="1" stopTime="0.00" timeLoss="28.02" rerouteNo="0" devices="tripinfo_69" vType="DEFAULT_VEHTYPE" speedFactor="1.10" vaporized=""/>
    <tripinfo id="60" depart="60.00" departLane="-E3_0" departPos="5.10" departSpeed="0.00" departDelay="0.00" arrival="113.00" arrivalLane="E2_0" arrivalPos="89.60" arrivalSpeed="13.70" duration="53.00" routeLength="183.13" waitingTime="29.00" waitingCount="1" stopTime="0.00" timeLoss="38.06" rerouteNo="0" devices="tripinfo_60" vType="DEFAULT_VEHTYPE" speedFactor="1.00" vaporized=""/>
    <tripinfo id="82" depart="82.00" departLane="-E3_0" departPos="5.10" departSpeed="0.00" departDelay="0.00" arrival="113.00" arrivalLane="E0_1" arrivalPos="89.60" arrivalSpeed="12.76" duration="31.00" routeLength="193.45" waitingTime="5.00" waitingCount="1" stopTime="0.00" timeLoss="15.76" rerouteNo="0" devices="tripinfo_82" vType="DEFAULT_VEHTYPE" speedFactor="0.99" vaporized=""/>
    <tripinfo id="61" depart="63.00" departLane="-E3_0" departPos="5.10" departSpeed="0.00" departDelay="2.00" arrival="115.00" arrivalLane="E2_0" arrivalPos="89.60" arrivalSpeed="12.47" duration="52.00" routeLength="183.13" waitingTime="27.00" waitingCount="1" stopTime="0.00" timeLoss="36.87" rerouteNo="0" devices="tripinfo_61" vType="DEFAULT_VEHTYPE" speedFactor="0.90" vaporized=""/>
    <tripinfo id="87" depart="88.00" departLane="-E3_0" departPos="5.10" departSpeed="0.00" departDelay="1.00" arrival="116.00" arrivalLane="E0_1" arrivalPos="89.60" arrivalSpeed="11.91" duration="28.00" routeLength="193.45" waitingTime="3.00" waitingCount="1" stopTime="0.00" timeLoss="11.46" rerouteNo="0" devices="tripinfo_87" vType="DEFAULT_VEHTYPE" speedFactor="0.91" vaporized=""/>
    <tripinfo id="91" depart="91.00" departLane="-E3_0" departPos="5.10" departSpeed="0.00" departDelay="0.00" arrival="117.00" arrivalLane="E0_1" arrivalPos="89.60" arrivalSpeed="13.45" duration="26.00" routeLength="193.45" waitingTime="0.00" waitingCount="0" stopTime="0.00" timeLoss="11.78" rerouteNo="0" devices="tripinfo_91" vType="DEFAULT_VEHTYPE" speedFactor="1.02" vaporized=""/>
    <tripinfo id="75" depart="75.00" departLane="-E3_0" departPos="5.10" departSpeed="0.00" departDelay="0.00" arrival="118.00" arrivalLane="E2_0" arrivalPos="89.60" arrivalSpeed="12.93" duration="43.00" routeLength="183.13" waitingTime="18.00" waitingCount="1" stopTime="0.00" timeLoss="28.42" rerouteNo="0" devices="tripinfo_75" vType="DEFAULT_VEHTYPE" speedFactor="1.02" vaporized=""/>
    <tripinfo id="93" depart="93.00" departLane="-E3_0" departPos="5.10" departSpeed="0.00" departDelay="0.00" arrival="119.00" arrivalLane="E0_1" arrivalPos="89.60" arrivalSpeed="13.13" duration="26.00" routeLength="193.45" waitingTime="1.00" waitingCount="1" stopTime="0.00" timeLoss="11.62" rerouteNo="0" devices="tripinfo_93" vType="DEFAULT_VEHTYPE" speedFactor="1.02" vaporized=""/>
    <tripinfo id="40" depart="40.00" departLane="-E2_0" departPos="5.10" departSpeed="0.00" departDelay="0.00" arrival="121.00" arrivalLane="E1_0" arrivalPos="89.60" arrivalSpeed="15.99" duration="81.00" routeLength="183.13" waitingTime="54.00" waitingCount="1" stopTime="0.00" timeLoss="68.64" rerouteNo="0" devices="tripinfo_40" vType="DEFAULT_VEHTYPE" speedFactor="1.18" vaporized=""/>
    <tripinfo id="56" depart="56.00" departLane="-E2_0" departPos="5.10" departSpeed="0.00" departDelay="0.00" arrival="122.00" arrivalLane="E0_1" arrivalPos="89.60" arrivalSpeed="13.70" duration="66.00" routeLength="194.90" waitingTime="42.00" waitingCount="1" stopTime="0.00" timeLoss="52.10" rerouteNo="0" devices="tripinfo_56" vType="DEFAULT_VEHTYPE" speedFactor="1.04" vaporized=""/>
    <tripinfo id="59" depart="59.00" departLane="-E2_0" departPos="5.10" departSpeed="0.00" departDelay="0.00" arrival="124.00" arrivalLane="E0_0" arrivalPos="89.60" arrivalSpeed="13.86" duration="65.00" routeLength="194.90" waitingTime="42.00" waitingCount="1" stopTime="0.00" timeLoss="51.55" rerouteNo="0" devices="tripinfo_59" vType="DEFAULT_VEHTYPE" speedFactor="1.09" vaporized=""/>
    <tripinfo id="98" depart="98.00" departLane="-E2_0" departPos="5.10" departSpeed="0.00" departDelay="0.00" arrival="125.00" arrivalLane="E0_1" arrivalPos="89.60" arrivalSpeed="12.02" duration="27.00" routeLength="194.90" waitingTime="1.00" waitingCount="1" stopTime="0.00" timeLoss="11.68" rerouteNo="0" devices="tripinfo_98" vType="DEFAULT_VEHTYPE" speedFactor="0.96" vaporized=""/>
    <tripinfo id="74" depart="74.00" departLane="-E0_0" departPos="5.10" departSpeed="0.00" departDelay="0.00" arrival="132.00" arrivalLane="E1_1" arrivalPos="89.60" arrivalSpeed="15.67" duration="58.00" routeLength="193.45" waitingTime="28.00" waitingCount="1" stopTime="0.00" timeLoss="44.60" rerouteNo="0" devices="tripinfo_74" vType="DEFAULT_VEHTYPE" speedFactor="1.14" vaporized=""/>
    <tripinfo id="80" depart="80.00" departLane="-E0_0" departPos="5.10" departSpeed="0.00" departDelay="0.00" arrival="132.00" arrivalLane="E2_0" arrivalPos="89.60" arrivalSpeed="15.22" duration="52.00" routeLength="194.90" waitingTime="29.00" waitingCount="1" stopTime="0.00" timeLoss="39.17" rerouteNo="0" devices="tripinfo_80" vType="DEFAULT_VEHTYPE" speedFactor="1.12" vaporized=""/>
    <tripinfo id="81" depart="83.00" departLane="-E0_0" departPos="5.10" departSpeed="0.00" departDelay="2.00" arrival="135.00" arrivalLane="E3_0" arrivalPos="89.60" arrivalSpeed="13.21" duration="52.00" routeLength="183.13" waitingTime="27.00" waitingCount="1" stopTime="0.00" timeLoss="37.58" rerouteNo="0" devices="tripinfo_81" vType="DEFAULT_VEHTYPE" speedFactor="1.02" vaporized=""/>
    <tripinfo id="83" depart="86.00" departLane="-E0_0" departPos="5.10" departSpeed="0.00" departDelay="3.00" arrival="135.00" arrivalLane="E2_1" arrivalPos="89.60" arrivalSpeed="12.71" duration="49.00" routeLength="194.90" waitingTime="25.00" waitingCount="1" stopTime="0.00" timeLoss="33.12" rerouteNo="0" devices="tripinfo_83" vType="DEFAULT_VEHTYPE" speedFactor="0.94" vaporized=""/>
    <tripinfo id="88" depart="89.00" departLane="-E0_0" departPos="5.10" departSpeed="0.00" departDelay="1.00" arrival="137.00" arrivalLane="E1_1" arrivalPos="89.60" arrivalSpeed="13.32" duration="48.00" routeLength="193.45" waitingTime="23.00" waitingCount="1" stopTime="0.00" timeLoss="33.07" rerouteNo="0" devices="tripinfo_88" vType="DEFAULT_VEHTYPE" speedFactor="1.04" vaporized=""/>
    <tripinfo id="96" depart="96.00" departLane="-E0_0" departPos="5.10" departSpeed="0.00" departDelay="0.00" arrival="138.00" arrivalLane="E3_0" arrivalPos="89.60" arrivalSpeed="12.14" duration="42.00" routeLength="183.13" waitingTime="17.00" waitingCount="1" stopTime="0.00" timeLoss="26.87" rerouteNo="0" devices="tripinfo_96" vType="DEFAULT_VEHTYPE" speedFactor="0.94" vaporized=""/>
    <tripinfo id="94" depart="94.00" departLane="-E0_0" departPos="5.10" departSpeed="0.00" departDelay="0.00" arrival="139.00" arrivalLane="E1_1" arrivalPos="89.60" arrivalSpeed="13.20" duration="45.00" routeLength="193.45" waitingTime="21.00" waitingCount="1" stopTime="0.00" timeLoss="29.71" rerouteNo="0" devices="tripinfo_94" vType="DEFAULT_VEHTYPE" speedFactor="0.97" vaporized=""/>
    <tripinfo id="112" depart="112.00" departLane="-E0_0" departPos="5.10" departSpeed="0.00" departDelay="0.00" arrival="140.00" arrivalLane="E2_0" arrivalPos="89.60" arrivalSpeed="13.56" duration="28.00" routeLength="194.90" waitingTime="1.00" waitingCount="1" stopTime="0.00" timeLoss="13.63" rerouteNo="0" devices="tripinfo_112" vType="DEFAULT_VEHTYPE" speedFactor="1.02" vaporized=""/>
    <tripinfo id="109" depart="109.00" departLane="-E0_0" departPos="5.10" departSpeed="0.00" departDelay="0.00" arrival="141.00" arrivalLane="E1_1" arrivalPos="89.60" arrivalSpeed="13.78" duration="32.00" routeLength="193.45" waitingTime="7.00" waitingCount="1" stopTime="0.00" timeLoss="17.57" rerouteNo="0" devices="tripinfo_109" vType="DEFAULT_VEHTYPE" speedFactor="1.03" vaporized=""/>